<?xml version="1.0"?> 
<VTKFile type="StructuredGrid" version="0.1"> 
<StructuredGrid WholeExtent="0 30 0 30 0 10"> 
<Piece Extent="0 30 0 30 0 10"> 
<PointData Scalars="Ceramic volume fraction">
<DataArray type="Float32" Name="Ceramic volume fraction" format="ascii" NumberOfComponents="1"> 
9.05421e-06 0.174021 0.324064 0.452171 0.560376 0.650712 0.725214 0.785915 0.83485 0.87405 0.905552 0.931048 0.950879 0.965043 0.973542 0.976375 0.973542 0.965043 0.950879 0.931048 0.905552 0.87405 0.83485 0.785915 0.725214 0.650712 0.560376 0.452171 0.324064 0.174021 9.05421e-06 0.174021 0.255634 0.330796 0.399648 0.462327 0.518976 0.569732 0.614737 0.654129 0.688048 0.716634 0.740004 0.758181 0.771164 0.778954 0.78155 0.778954 0.771164 0.758181 0.740004 0.716634 0.688048 0.654129 0.614737 0.569732 0.518976 0.462327 0.399648 0.330796 0.255634 0.174021 0.324064 0.330796 0.345712 0.367341 0.394215 0.424863 0.457817 0.491608 0.524765 0.555819 0.583302 0.605988 0.623632 0.636236 0.643798 0.646318 0.643798 0.636236 0.623632 0.605988 0.583302 0.555819 0.524765 0.491608 0.457817 0.424863 0.394215 0.367341 0.345712 0.330796 0.324064 0.452171 0.399648 0.367341 0.352432 0.3521 0.363525 0.383888 0.410369 0.440148 0.470406 0.498322 0.521547 0.539611 0.552514 0.560256 0.562836 0.560256 0.552514 0.539611 0.521547 0.498322 0.470406 0.440148 0.410369 0.383888 0.363525 0.3521 0.352432 0.367341 0.399648 0.452171 0.560376 0.462327 0.394215 0.3521 0.332045 0.330112 0.342364 0.364863 0.393671 0.424851 0.454465 0.479231 0.498494 0.512253 0.520509 0.523261 0.520509 0.512253 0.498494 0.479231 0.454465 0.424851 0.393671 0.364863 0.342364 0.330112 0.332045 0.3521 0.394215 0.462327 0.560376 0.650712 0.518976 0.424863 0.363525 0.330112 0.319774 0.327664 0.34893 0.378724 0.412197 0.444498 0.471589 0.492659 0.507709 0.516739 0.519749 0.516739 0.507709 0.492659 0.471589 0.444498 0.412197 0.378724 0.34893 0.327664 0.319774 0.330112 0.363525 0.424863 0.518976 0.650712 0.725214 0.569732 0.457817 0.383888 0.342364 0.327664 0.334206 0.356412 0.388698 0.425485 0.461192 0.491168 0.514482 0.531135 0.541127 0.544458 0.541127 0.531135 0.514482 0.491168 0.461192 0.425485 0.388698 0.356412 0.334206 0.327664 0.342364 0.383888 0.457817 0.569732 0.725214 0.785915 0.614737 0.491608 0.410369 0.364863 0.34893 0.356412 0.38115 0.416985 0.45776 0.497314 0.530517 0.556342 0.574788 0.585855 0.589544 0.585855 0.574788 0.556342 0.530517 0.497314 0.45776 0.416985 0.38115 0.356412 0.34893 0.364863 0.410369 0.491608 0.614737 0.785915 0.83485 0.654129 0.524765 0.440148 0.393671 0.378724 0.388698 0.416985 0.456976 0.502062 0.545634 0.582186 0.610614 0.630921 0.643104 0.647166 0.643104 0.630921 0.610614 0.582186 0.545634 0.502062 0.456976 0.416985 0.388698 0.378724 0.393671 0.440148 0.524765 0.654129 0.83485 0.87405 0.688048 0.555819 0.470406 0.424851 0.412197 0.425485 0.45776 0.502062 0.551435 0.598921 0.638722 0.669678 0.691789 0.705056 0.709479 0.705056 0.691789 0.669678 0.638722 0.598921 0.551435 0.502062 0.45776 0.425485 0.412197 0.424851 0.470406 0.555819 0.688048 0.87405 0.905552 0.716634 0.583302 0.498322 0.454465 0.444498 0.461192 0.497314 0.545634 0.598921 0.649943 0.692674 0.725909 0.749649 0.763892 0.76864 0.763892 0.749649 0.725909 0.692674 0.649943 0.598921 0.545634 0.497314 0.461192 0.444498 0.454465 0.498322 0.583302 0.716634 0.905552 0.931048 0.740004 0.605988 0.521547 0.479231 0.471589 0.491168 0.530517 0.582186 0.638722 0.692674 0.737832 0.772956 0.798044 0.813097 0.818115 0.813097 0.798044 0.772956 0.737832 0.692674 0.638722 0.582186 0.530517 0.491168 0.471589 0.479231 0.521547 0.605988 0.740004 0.931048 0.950879 0.758181 0.623632 0.539611 0.498494 0.492659 0.514482 0.556342 0.610614 0.669678 0.725909 0.772956 0.809548 0.835685 0.851367 0.856595 0.851367 0.835685 0.809548 0.772956 0.725909 0.669678 0.610614 0.556342 0.514482 0.492659 0.498494 0.539611 0.623632 0.758181 0.950879 0.965043 0.771164 0.636236 0.552514 0.512253 0.507709 0.531135 0.574788 0.630921 0.691789 0.749649 0.798044 0.835685 0.862572 0.878703 0.884081 0.878703 0.862572 0.835685 0.798044 0.749649 0.691789 0.630921 0.574788 0.531135 0.507709 0.512253 0.552514 0.636236 0.771164 0.965043 0.973542 0.778954 0.643798 0.560256 0.520509 0.516739 0.541127 0.585855 0.643104 0.705056 0.763892 0.813097 0.851367 0.878703 0.895105 0.900572 0.895105 0.878703 0.851367 0.813097 0.763892 0.705056 0.643104 0.585855 0.541127 0.516739 0.520509 0.560256 0.643798 0.778954 0.973542 0.976375 0.78155 0.646318 0.562836 0.523261 0.519749 0.544458 0.589544 0.647166 0.709479 0.76864 0.818115 0.856595 0.884081 0.900572 0.906069 0.900572 0.884081 0.856595 0.818115 0.76864 0.709479 0.647166 0.589544 0.544458 0.519749 0.523261 0.562836 0.646318 0.78155 0.976375 0.973542 0.778954 0.643798 0.560256 0.520509 0.516739 0.541127 0.585855 0.643104 0.705056 0.763892 0.813097 0.851367 0.878703 0.895105 0.900572 0.895105 0.878703 0.851367 0.813097 0.763892 0.705056 0.643104 0.585855 0.541127 0.516739 0.520509 0.560256 0.643798 0.778954 0.973542 0.965043 0.771164 0.636236 0.552514 0.512253 0.507709 0.531135 0.574788 0.630921 0.691789 0.749649 0.798044 0.835685 0.862572 0.878703 0.884081 0.878703 0.862572 0.835685 0.798044 0.749649 0.691789 0.630921 0.574788 0.531135 0.507709 0.512253 0.552514 0.636236 0.771164 0.965043 0.950879 0.758181 0.623632 0.539611 0.498494 0.492659 0.514482 0.556342 0.610614 0.669678 0.725909 0.772956 0.809548 0.835685 0.851367 0.856595 0.851367 0.835685 0.809548 0.772956 0.725909 0.669678 0.610614 0.556342 0.514482 0.492659 0.498494 0.539611 0.623632 0.758181 0.950879 0.931048 0.740004 0.605988 0.521547 0.479231 0.471589 0.491168 0.530517 0.582186 0.638722 0.692674 0.737832 0.772956 0.798044 0.813097 0.818115 0.813097 0.798044 0.772956 0.737832 0.692674 0.638722 0.582186 0.530517 0.491168 0.471589 0.479231 0.521547 0.605988 0.740004 0.931048 0.905552 0.716634 0.583302 0.498322 0.454465 0.444498 0.461192 0.497314 0.545634 0.598921 0.649943 0.692674 0.725909 0.749649 0.763892 0.76864 0.763892 0.749649 0.725909 0.692674 0.649943 0.598921 0.545634 0.497314 0.461192 0.444498 0.454465 0.498322 0.583302 0.716634 0.905552 0.87405 0.688048 0.555819 0.470406 0.424851 0.412197 0.425485 0.45776 0.502062 0.551435 0.598921 0.638722 0.669678 0.691789 0.705056 0.709479 0.705056 0.691789 0.669678 0.638722 0.598921 0.551435 0.502062 0.45776 0.425485 0.412197 0.424851 0.470406 0.555819 0.688048 0.87405 0.83485 0.654129 0.524765 0.440148 0.393671 0.378724 0.388698 0.416985 0.456976 0.502062 0.545634 0.582186 0.610614 0.630921 0.643104 0.647166 0.643104 0.630921 0.610614 0.582186 0.545634 0.502062 0.456976 0.416985 0.388698 0.378724 0.393671 0.440148 0.524765 0.654129 0.83485 0.785915 0.614737 0.491608 0.410369 0.364863 0.34893 0.356412 0.38115 0.416985 0.45776 0.497314 0.530517 0.556342 0.574788 0.585855 0.589544 0.585855 0.574788 0.556342 0.530517 0.497314 0.45776 0.416985 0.38115 0.356412 0.34893 0.364863 0.410369 0.491608 0.614737 0.785915 0.725214 0.569732 0.457817 0.383888 0.342364 0.327664 0.334206 0.356412 0.388698 0.425485 0.461192 0.491168 0.514482 0.531135 0.541127 0.544458 0.541127 0.531135 0.514482 0.491168 0.461192 0.425485 0.388698 0.356412 0.334206 0.327664 0.342364 0.383888 0.457817 0.569732 0.725214 0.650712 0.518976 0.424863 0.363525 0.330112 0.319774 0.327664 0.34893 0.378724 0.412197 0.444498 0.471589 0.492659 0.507709 0.516739 0.519749 0.516739 0.507709 0.492659 0.471589 0.444498 0.412197 0.378724 0.34893 0.327664 0.319774 0.330112 0.363525 0.424863 0.518976 0.650712 0.560376 0.462327 0.394215 0.3521 0.332045 0.330112 0.342364 0.364863 0.393671 0.424851 0.454465 0.479231 0.498494 0.512253 0.520509 0.523261 0.520509 0.512253 0.498494 0.479231 0.454465 0.424851 0.393671 0.364863 0.342364 0.330112 0.332045 0.3521 0.394215 0.462327 0.560376 0.452171 0.399648 0.367341 0.352432 0.3521 0.363525 0.383888 0.410369 0.440148 0.470406 0.498322 0.521547 0.539611 0.552514 0.560256 0.562836 0.560256 0.552514 0.539611 0.521547 0.498322 0.470406 0.440148 0.410369 0.383888 0.363525 0.3521 0.352432 0.367341 0.399648 0.452171 0.324064 0.330796 0.345712 0.367341 0.394215 0.424863 0.457817 0.491608 0.524765 0.555819 0.583302 0.605988 0.623632 0.636236 0.643798 0.646318 0.643798 0.636236 0.623632 0.605988 0.583302 0.555819 0.524765 0.491608 0.457817 0.424863 0.394215 0.367341 0.345712 0.330796 0.324064 0.174021 0.255634 0.330796 0.399648 0.462327 0.518976 0.569732 0.614737 0.654129 0.688048 0.716634 0.740004 0.758181 0.771164 0.778954 0.78155 0.778954 0.771164 0.758181 0.740004 0.716634 0.688048 0.654129 0.614737 0.569732 0.518976 0.462327 0.399648 0.330796 0.255634 0.174021 9.05421e-06 0.174021 0.324064 0.452171 0.560376 0.650712 0.725214 0.785915 0.83485 0.87405 0.905552 0.931048 0.950879 0.965043 0.973542 0.976375 0.973542 0.965043 0.950879 0.931048 0.905552 0.87405 0.83485 0.785915 0.725214 0.650712 0.560376 0.452171 0.324064 0.174021 9.05421e-06 1.28972e-05 0.127776 0.23936 0.336015 0.418994 0.48955 0.548934 0.598399 0.639196 0.672578 0.699797 0.721896 0.739084 0.751362 0.758728 0.761184 0.758728 0.751362 0.739084 0.721896 0.699797 0.672578 0.639196 0.598399 0.548934 0.48955 0.418994 0.336015 0.23936 0.127776 1.28972e-05 0.127776 0.18769 0.243894 0.296318 0.34489 0.389537 0.430188 0.46677 0.499212 0.527442 0.551388 0.57099 0.586235 0.597125 0.603659 0.605837 0.603659 0.597125 0.586235 0.57099 0.551388 0.527442 0.499212 0.46677 0.430188 0.389537 0.34489 0.296318 0.243894 0.18769 0.127776 0.23936 0.243894 0.255228 0.272152 0.293459 0.317939 0.344384 0.371585 0.398336 0.423426 0.445647 0.463993 0.478263 0.488455 0.49457 0.496609 0.49457 0.488455 0.478263 0.463993 0.445647 0.423426 0.398336 0.371585 0.344384 0.317939 0.293459 0.272152 0.255228 0.243894 0.23936 0.336015 0.296318 0.272152 0.261343 0.261716 0.271098 0.287316 0.308195 0.331562 0.355243 0.377065 0.395215 0.409332 0.419415 0.425465 0.427482 0.425465 0.419415 0.409332 0.395215 0.377065 0.355243 0.331562 0.308195 0.287316 0.271098 0.261716 0.261343 0.272152 0.296318 0.336015 0.418994 0.34489 0.293459 0.261716 0.246678 0.24536 0.254779 0.271949 0.293887 0.317608 0.340128 0.358961 0.373609 0.384071 0.390349 0.392441 0.390349 0.384071 0.373609 0.358961 0.340128 0.317608 0.293887 0.271949 0.254779 0.24536 0.246678 0.261716 0.293459 0.34489 0.418994 0.48955 0.389537 0.317939 0.271098 0.24536 0.237068 0.242566 0.258196 0.280305 0.305234 0.329327 0.349539 0.365259 0.376488 0.383225 0.385471 0.383225 0.376488 0.365259 0.349539 0.329327 0.305234 0.280305 0.258196 0.242566 0.237068 0.24536 0.271098 0.317939 0.389537 0.48955 0.548934 0.430188 0.344384 0.287316 0.254779 0.242566 0.246471 0.262288 0.285811 0.312834 0.33915 0.361256 0.378449 0.390729 0.398098 0.400554 0.398098 0.390729 0.378449 0.361256 0.33915 0.312834 0.285811 0.262288 0.246471 0.242566 0.254779 0.287316 0.344384 0.430188 0.548934 0.598399 0.46677 0.371585 0.308195 0.271949 0.258196 0.262288 0.279572 0.3054 0.335122 0.364086 0.388418 0.407343 0.420861 0.428972 0.431675 0.428972 0.420861 0.407343 0.388418 0.364086 0.335122 0.3054 0.279572 0.262288 0.258196 0.271949 0.308195 0.371585 0.46677 0.598399 0.639196 0.499212 0.398336 0.331562 0.293887 0.280305 0.285811 0.3054 0.334069 0.366812 0.398623 0.425334 0.446108 0.460947 0.469851 0.472819 0.469851 0.460947 0.446108 0.425334 0.398623 0.366812 0.334069 0.3054 0.285811 0.280305 0.293887 0.331562 0.398336 0.499212 0.639196 0.672578 0.527442 0.423426 0.355243 0.317608 0.305234 0.312834 0.335122 0.366812 0.402617 0.437251 0.466309 0.48891 0.505053 0.514739 0.517968 0.514739 0.505053 0.48891 0.466309 0.437251 0.402617 0.366812 0.335122 0.312834 0.305234 0.317608 0.355243 0.423426 0.527442 0.672578 0.699797 0.551388 0.445647 0.377065 0.340128 0.329327 0.33915 0.364086 0.398623 0.437251 0.474458 0.505652 0.529914 0.547244 0.557642 0.561108 0.557642 0.547244 0.529914 0.505652 0.474458 0.437251 0.398623 0.364086 0.33915 0.329327 0.340128 0.377065 0.445647 0.551388 0.699797 0.721896 0.57099 0.463993 0.395215 0.358961 0.349539 0.361256 0.388418 0.425334 0.466309 0.505652 0.538618 0.564258 0.582573 0.593561 0.597224 0.593561 0.582573 0.564258 0.538618 0.505652 0.466309 0.425334 0.388418 0.361256 0.349539 0.358961 0.395215 0.463993 0.57099 0.721896 0.739084 0.586235 0.478263 0.409332 0.373609 0.365259 0.378449 0.407343 0.446108 0.48891 0.529914 0.564258 0.59097 0.61005 0.621498 0.625315 0.621498 0.61005 0.59097 0.564258 0.529914 0.48891 0.446108 0.407343 0.378449 0.365259 0.373609 0.409332 0.478263 0.586235 0.739084 0.751362 0.597125 0.488455 0.419415 0.384071 0.376488 0.390729 0.420861 0.460947 0.505053 0.547244 0.582573 0.61005 0.629677 0.641454 0.645379 0.641454 0.629677 0.61005 0.582573 0.547244 0.505053 0.460947 0.420861 0.390729 0.376488 0.384071 0.419415 0.488455 0.597125 0.751362 0.758728 0.603659 0.49457 0.425465 0.390349 0.383225 0.398098 0.428972 0.469851 0.514739 0.557642 0.593561 0.621498 0.641454 0.653427 0.657418 0.653427 0.641454 0.621498 0.593561 0.557642 0.514739 0.469851 0.428972 0.398098 0.383225 0.390349 0.425465 0.49457 0.603659 0.758728 0.761184 0.605837 0.496609 0.427482 0.392441 0.385471 0.400554 0.431675 0.472819 0.517968 0.561108 0.597224 0.625315 0.645379 0.657418 0.661431 0.657418 0.645379 0.625315 0.597224 0.561108 0.517968 0.472819 0.431675 0.400554 0.385471 0.392441 0.427482 0.496609 0.605837 0.761184 0.758728 0.603659 0.49457 0.425465 0.390349 0.383225 0.398098 0.428972 0.469851 0.514739 0.557642 0.593561 0.621498 0.641454 0.653427 0.657418 0.653427 0.641454 0.621498 0.593561 0.557642 0.514739 0.469851 0.428972 0.398098 0.383225 0.390349 0.425465 0.49457 0.603659 0.758728 0.751362 0.597125 0.488455 0.419415 0.384071 0.376488 0.390729 0.420861 0.460947 0.505053 0.547244 0.582573 0.61005 0.629677 0.641454 0.645379 0.641454 0.629677 0.61005 0.582573 0.547244 0.505053 0.460947 0.420861 0.390729 0.376488 0.384071 0.419415 0.488455 0.597125 0.751362 0.739084 0.586235 0.478263 0.409332 0.373609 0.365259 0.378449 0.407343 0.446108 0.48891 0.529914 0.564258 0.59097 0.61005 0.621498 0.625315 0.621498 0.61005 0.59097 0.564258 0.529914 0.48891 0.446108 0.407343 0.378449 0.365259 0.373609 0.409332 0.478263 0.586235 0.739084 0.721896 0.57099 0.463993 0.395215 0.358961 0.349539 0.361256 0.388418 0.425334 0.466309 0.505652 0.538618 0.564258 0.582573 0.593561 0.597224 0.593561 0.582573 0.564258 0.538618 0.505652 0.466309 0.425334 0.388418 0.361256 0.349539 0.358961 0.395215 0.463993 0.57099 0.721896 0.699797 0.551388 0.445647 0.377065 0.340128 0.329327 0.33915 0.364086 0.398623 0.437251 0.474458 0.505652 0.529914 0.547244 0.557642 0.561108 0.557642 0.547244 0.529914 0.505652 0.474458 0.437251 0.398623 0.364086 0.33915 0.329327 0.340128 0.377065 0.445647 0.551388 0.699797 0.672578 0.527442 0.423426 0.355243 0.317608 0.305234 0.312834 0.335122 0.366812 0.402617 0.437251 0.466309 0.48891 0.505053 0.514739 0.517968 0.514739 0.505053 0.48891 0.466309 0.437251 0.402617 0.366812 0.335122 0.312834 0.305234 0.317608 0.355243 0.423426 0.527442 0.672578 0.639196 0.499212 0.398336 0.331562 0.293887 0.280305 0.285811 0.3054 0.334069 0.366812 0.398623 0.425334 0.446108 0.460947 0.469851 0.472819 0.469851 0.460947 0.446108 0.425334 0.398623 0.366812 0.334069 0.3054 0.285811 0.280305 0.293887 0.331562 0.398336 0.499212 0.639196 0.598399 0.46677 0.371585 0.308195 0.271949 0.258196 0.262288 0.279572 0.3054 0.335122 0.364086 0.388418 0.407343 0.420861 0.428972 0.431675 0.428972 0.420861 0.407343 0.388418 0.364086 0.335122 0.3054 0.279572 0.262288 0.258196 0.271949 0.308195 0.371585 0.46677 0.598399 0.548934 0.430188 0.344384 0.287316 0.254779 0.242566 0.246471 0.262288 0.285811 0.312834 0.33915 0.361256 0.378449 0.390729 0.398098 0.400554 0.398098 0.390729 0.378449 0.361256 0.33915 0.312834 0.285811 0.262288 0.246471 0.242566 0.254779 0.287316 0.344384 0.430188 0.548934 0.48955 0.389537 0.317939 0.271098 0.24536 0.237068 0.242566 0.258196 0.280305 0.305234 0.329327 0.349539 0.365259 0.376488 0.383225 0.385471 0.383225 0.376488 0.365259 0.349539 0.329327 0.305234 0.280305 0.258196 0.242566 0.237068 0.24536 0.271098 0.317939 0.389537 0.48955 0.418994 0.34489 0.293459 0.261716 0.246678 0.24536 0.254779 0.271949 0.293887 0.317608 0.340128 0.358961 0.373609 0.384071 0.390349 0.392441 0.390349 0.384071 0.373609 0.358961 0.340128 0.317608 0.293887 0.271949 0.254779 0.24536 0.246678 0.261716 0.293459 0.34489 0.418994 0.336015 0.296318 0.272152 0.261343 0.261716 0.271098 0.287316 0.308195 0.331562 0.355243 0.377065 0.395215 0.409332 0.419415 0.425465 0.427482 0.425465 0.419415 0.409332 0.395215 0.377065 0.355243 0.331562 0.308195 0.287316 0.271098 0.261716 0.261343 0.272152 0.296318 0.336015 0.23936 0.243894 0.255228 0.272152 0.293459 0.317939 0.344384 0.371585 0.398336 0.423426 0.445647 0.463993 0.478263 0.488455 0.49457 0.496609 0.49457 0.488455 0.478263 0.463993 0.445647 0.423426 0.398336 0.371585 0.344384 0.317939 0.293459 0.272152 0.255228 0.243894 0.23936 0.127776 0.18769 0.243894 0.296318 0.34489 0.389537 0.430188 0.46677 0.499212 0.527442 0.551388 0.57099 0.586235 0.597125 0.603659 0.605837 0.603659 0.597125 0.586235 0.57099 0.551388 0.527442 0.499212 0.46677 0.430188 0.389537 0.34489 0.296318 0.243894 0.18769 0.127776 1.28972e-05 0.127776 0.23936 0.336015 0.418994 0.48955 0.548934 0.598399 0.639196 0.672578 0.699797 0.721896 0.739084 0.751362 0.758728 0.761184 0.758728 0.751362 0.739084 0.721896 0.699797 0.672578 0.639196 0.598399 0.548934 0.48955 0.418994 0.336015 0.23936 0.127776 1.28972e-05 1.58862e-05 0.0918081 0.173478 0.245671 0.309031 0.364202 0.411827 0.452552 0.487021 0.515877 0.539765 0.559222 0.574356 0.585165 0.591651 0.593813 0.591651 0.585165 0.574356 0.559222 0.539765 0.515877 0.487021 0.452552 0.411827 0.364202 0.309031 0.245671 0.173478 0.0918081 1.58862e-05 0.0918081 0.134844 0.176304 0.215951 0.25355 0.288862 0.321653 0.351684 0.378721 0.402526 0.422862 0.439534 0.4525 0.461762 0.467319 0.469172 0.467319 0.461762 0.4525 0.439534 0.422862 0.402526 0.378721 0.351684 0.321653 0.288862 0.25355 0.215951 0.176304 0.134844 0.0918081 0.173478 0.176304 0.184852 0.198117 0.215093 0.234775 0.256157 0.278235 0.300002 0.320453 0.338583 0.353554 0.365197 0.373514 0.378505 0.380168 0.378505 0.373514 0.365197 0.353554 0.338583 0.320453 0.300002 0.278235 0.256157 0.234775 0.215093 0.198117 0.184852 0.176304 0.173478 0.245671 0.215951 0.198117 0.190496 0.191418 0.199211 0.212204 0.228727 0.247106 0.265672 0.282753 0.296957 0.308004 0.315894 0.320629 0.322207 0.320629 0.315894 0.308004 0.296957 0.282753 0.265672 0.247106 0.228727 0.212204 0.199211 0.191418 0.190496 0.198117 0.215951 0.245671 0.309031 0.25355 0.215093 0.191418 0.180282 0.179443 0.186657 0.199683 0.216277 0.234197 0.2512 0.265418 0.276476 0.284374 0.289114 0.290693 0.289114 0.284374 0.276476 0.265418 0.2512 0.234197 0.216277 0.199683 0.186657 0.179443 0.180282 0.191418 0.215093 0.25355 0.309031 0.364202 0.288862 0.234775 0.199211 0.179443 0.172741 0.176378 0.187626 0.203756 0.22204 0.23975 0.254611 0.266171 0.274427 0.279381 0.281032 0.279381 0.274427 0.266171 0.254611 0.23975 0.22204 0.203756 0.187626 0.176378 0.172741 0.179443 0.199211 0.234775 0.288862 0.364202 0.411827 0.321653 0.256157 0.212204 0.186657 0.176378 0.178232 0.18908 0.205787 0.225216 0.244229 0.260213 0.272645 0.281525 0.286853 0.288629 0.286853 0.281525 0.272645 0.260213 0.244229 0.225216 0.205787 0.18908 0.178232 0.176378 0.186657 0.212204 0.256157 0.321653 0.411827 0.452552 0.351684 0.278235 0.228727 0.199683 0.187626 0.18908 0.200568 0.218612 0.239737 0.260464 0.277897 0.291456 0.30114 0.306951 0.308888 0.306951 0.30114 0.291456 0.277897 0.260464 0.239737 0.218612 0.200568 0.18908 0.187626 0.199683 0.228727 0.278235 0.351684 0.452552 0.487021 0.378721 0.300002 0.247106 0.216277 0.203756 0.205787 0.218612 0.238475 0.261617 0.284282 0.303338 0.318159 0.328746 0.335098 0.337215 0.335098 0.328746 0.318159 0.303338 0.284282 0.261617 0.238475 0.218612 0.205787 0.203756 0.216277 0.247106 0.300002 0.378721 0.487021 0.515877 0.402526 0.320453 0.265672 0.234197 0.22204 0.225216 0.239737 0.261617 0.28687 0.311508 0.332211 0.348313 0.359814 0.366715 0.369016 0.366715 0.359814 0.348313 0.332211 0.311508 0.28687 0.261617 0.239737 0.225216 0.22204 0.234197 0.265672 0.320453 0.402526 0.515877 0.539765 0.422862 0.338583 0.282753 0.2512 0.23975 0.244229 0.260464 0.284282 0.311508 0.337971 0.360191 0.377473 0.389818 0.397225 0.399693 0.397225 0.389818 0.377473 0.360191 0.337971 0.311508 0.284282 0.260464 0.244229 0.23975 0.2512 0.282753 0.338583 0.422862 0.539765 0.559222 0.439534 0.353554 0.296957 0.265418 0.254611 0.260213 0.277897 0.303338 0.332211 0.360191 0.383673 0.401938 0.414983 0.422811 0.42542 0.422811 0.414983 0.401938 0.383673 0.360191 0.332211 0.303338 0.277897 0.260213 0.254611 0.265418 0.296957 0.353554 0.439534 0.559222 0.574356 0.4525 0.365197 0.308004 0.276476 0.266171 0.272645 0.291456 0.318159 0.348313 0.377473 0.401938 0.420965 0.434557 0.442712 0.44543 0.442712 0.434557 0.420965 0.401938 0.377473 0.348313 0.318159 0.291456 0.272645 0.266171 0.276476 0.308004 0.365197 0.4525 0.574356 0.585165 0.461762 0.373514 0.315894 0.284374 0.274427 0.281525 0.30114 0.328746 0.359814 0.389818 0.414983 0.434557 0.448538 0.456926 0.459722 0.456926 0.448538 0.434557 0.414983 0.389818 0.359814 0.328746 0.30114 0.281525 0.274427 0.284374 0.315894 0.373514 0.461762 0.585165 0.591651 0.467319 0.378505 0.320629 0.289114 0.279381 0.286853 0.306951 0.335098 0.366715 0.397225 0.422811 0.442712 0.456926 0.465455 0.468298 0.465455 0.456926 0.442712 0.422811 0.397225 0.366715 0.335098 0.306951 0.286853 0.279381 0.289114 0.320629 0.378505 0.467319 0.591651 0.593813 0.469172 0.380168 0.322207 0.290693 0.281032 0.288629 0.308888 0.337215 0.369016 0.399693 0.42542 0.44543 0.459722 0.468298 0.471157 0.468298 0.459722 0.44543 0.42542 0.399693 0.369016 0.337215 0.308888 0.288629 0.281032 0.290693 0.322207 0.380168 0.469172 0.593813 0.591651 0.467319 0.378505 0.320629 0.289114 0.279381 0.286853 0.306951 0.335098 0.366715 0.397225 0.422811 0.442712 0.456926 0.465455 0.468298 0.465455 0.456926 0.442712 0.422811 0.397225 0.366715 0.335098 0.306951 0.286853 0.279381 0.289114 0.320629 0.378505 0.467319 0.591651 0.585165 0.461762 0.373514 0.315894 0.284374 0.274427 0.281525 0.30114 0.328746 0.359814 0.389818 0.414983 0.434557 0.448538 0.456926 0.459722 0.456926 0.448538 0.434557 0.414983 0.389818 0.359814 0.328746 0.30114 0.281525 0.274427 0.284374 0.315894 0.373514 0.461762 0.585165 0.574356 0.4525 0.365197 0.308004 0.276476 0.266171 0.272645 0.291456 0.318159 0.348313 0.377473 0.401938 0.420965 0.434557 0.442712 0.44543 0.442712 0.434557 0.420965 0.401938 0.377473 0.348313 0.318159 0.291456 0.272645 0.266171 0.276476 0.308004 0.365197 0.4525 0.574356 0.559222 0.439534 0.353554 0.296957 0.265418 0.254611 0.260213 0.277897 0.303338 0.332211 0.360191 0.383673 0.401938 0.414983 0.422811 0.42542 0.422811 0.414983 0.401938 0.383673 0.360191 0.332211 0.303338 0.277897 0.260213 0.254611 0.265418 0.296957 0.353554 0.439534 0.559222 0.539765 0.422862 0.338583 0.282753 0.2512 0.23975 0.244229 0.260464 0.284282 0.311508 0.337971 0.360191 0.377473 0.389818 0.397225 0.399693 0.397225 0.389818 0.377473 0.360191 0.337971 0.311508 0.284282 0.260464 0.244229 0.23975 0.2512 0.282753 0.338583 0.422862 0.539765 0.515877 0.402526 0.320453 0.265672 0.234197 0.22204 0.225216 0.239737 0.261617 0.28687 0.311508 0.332211 0.348313 0.359814 0.366715 0.369016 0.366715 0.359814 0.348313 0.332211 0.311508 0.28687 0.261617 0.239737 0.225216 0.22204 0.234197 0.265672 0.320453 0.402526 0.515877 0.487021 0.378721 0.300002 0.247106 0.216277 0.203756 0.205787 0.218612 0.238475 0.261617 0.284282 0.303338 0.318159 0.328746 0.335098 0.337215 0.335098 0.328746 0.318159 0.303338 0.284282 0.261617 0.238475 0.218612 0.205787 0.203756 0.216277 0.247106 0.300002 0.378721 0.487021 0.452552 0.351684 0.278235 0.228727 0.199683 0.187626 0.18908 0.200568 0.218612 0.239737 0.260464 0.277897 0.291456 0.30114 0.306951 0.308888 0.306951 0.30114 0.291456 0.277897 0.260464 0.239737 0.218612 0.200568 0.18908 0.187626 0.199683 0.228727 0.278235 0.351684 0.452552 0.411827 0.321653 0.256157 0.212204 0.186657 0.176378 0.178232 0.18908 0.205787 0.225216 0.244229 0.260213 0.272645 0.281525 0.286853 0.288629 0.286853 0.281525 0.272645 0.260213 0.244229 0.225216 0.205787 0.18908 0.178232 0.176378 0.186657 0.212204 0.256157 0.321653 0.411827 0.364202 0.288862 0.234775 0.199211 0.179443 0.172741 0.176378 0.187626 0.203756 0.22204 0.23975 0.254611 0.266171 0.274427 0.279381 0.281032 0.279381 0.274427 0.266171 0.254611 0.23975 0.22204 0.203756 0.187626 0.176378 0.172741 0.179443 0.199211 0.234775 0.288862 0.364202 0.309031 0.25355 0.215093 0.191418 0.180282 0.179443 0.186657 0.199683 0.216277 0.234197 0.2512 0.265418 0.276476 0.284374 0.289114 0.290693 0.289114 0.284374 0.276476 0.265418 0.2512 0.234197 0.216277 0.199683 0.186657 0.179443 0.180282 0.191418 0.215093 0.25355 0.309031 0.245671 0.215951 0.198117 0.190496 0.191418 0.199211 0.212204 0.228727 0.247106 0.265672 0.282753 0.296957 0.308004 0.315894 0.320629 0.322207 0.320629 0.315894 0.308004 0.296957 0.282753 0.265672 0.247106 0.228727 0.212204 0.199211 0.191418 0.190496 0.198117 0.215951 0.245671 0.173478 0.176304 0.184852 0.198117 0.215093 0.234775 0.256157 0.278235 0.300002 0.320453 0.338583 0.353554 0.365197 0.373514 0.378505 0.380168 0.378505 0.373514 0.365197 0.353554 0.338583 0.320453 0.300002 0.278235 0.256157 0.234775 0.215093 0.198117 0.184852 0.176304 0.173478 0.0918081 0.134844 0.176304 0.215951 0.25355 0.288862 0.321653 0.351684 0.378721 0.402526 0.422862 0.439534 0.4525 0.461762 0.467319 0.469172 0.467319 0.461762 0.4525 0.439534 0.422862 0.402526 0.378721 0.351684 0.321653 0.288862 0.25355 0.215951 0.176304 0.134844 0.0918081 1.58862e-05 0.0918081 0.173478 0.245671 0.309031 0.364202 0.411827 0.452552 0.487021 0.515877 0.539765 0.559222 0.574356 0.585165 0.591651 0.593813 0.591651 0.585165 0.574356 0.559222 0.539765 0.515877 0.487021 0.452552 0.411827 0.364202 0.309031 0.245671 0.173478 0.0918081 1.58862e-05 1.80212e-05 0.0661165 0.126421 0.18114 0.230486 0.274667 0.313894 0.348376 0.378324 0.403948 0.425457 0.443027 0.456692 0.466453 0.47231 0.474262 0.47231 0.466453 0.456692 0.443027 0.425457 0.403948 0.378324 0.348376 0.313894 0.274667 0.230486 0.18114 0.126421 0.0661165 1.80212e-05 0.0661165 0.0970972 0.128025 0.158546 0.188307 0.216952 0.244128 0.269481 0.292656 0.3133 0.331059 0.345637 0.356975 0.365074 0.369934 0.371553 0.369934 0.365074 0.356975 0.345637 0.331059 0.3133 0.292656 0.269481 0.244128 0.216952 0.188307 0.158546 0.128025 0.0970972 0.0661165 0.126421 0.128025 0.134583 0.145234 0.159117 0.175372 0.193139 0.211556 0.229764 0.246901 0.262108 0.274668 0.284437 0.291414 0.295601 0.296996 0.295601 0.291414 0.284437 0.274668 0.262108 0.246901 0.229764 0.211556 0.193139 0.175372 0.159117 0.145234 0.134583 0.128025 0.126421 0.18114 0.158546 0.145234 0.139891 0.141205 0.147863 0.158553 0.171963 0.186781 0.201693 0.215388 0.226772 0.235626 0.241951 0.245745 0.24701 0.245745 0.241951 0.235626 0.226772 0.215388 0.201693 0.186781 0.171963 0.158553 0.147863 0.141205 0.139891 0.145234 0.158546 0.18114 0.230486 0.188307 0.159117 0.141205 0.132856 0.132358 0.137999 0.148064 0.160841 0.174617 0.18768 0.198601 0.207095 0.213162 0.216802 0.218016 0.216802 0.213162 0.207095 0.198601 0.18768 0.174617 0.160841 0.148064 0.137999 0.132358 0.132856 0.141205 0.159117 0.188307 0.230486 0.274667 0.216952 0.175372 0.147863 0.132358 0.126793 0.129102 0.137219 0.149079 0.162616 0.175766 0.186806 0.195393 0.201526 0.205207 0.206433 0.205207 0.201526 0.195393 0.186806 0.175766 0.162616 0.149079 0.137219 0.129102 0.126793 0.132358 0.147863 0.175372 0.216952 0.274667 0.313894 0.244128 0.193139 0.158553 0.137999 0.129102 0.12949 0.136789 0.148627 0.162631 0.176428 0.188039 0.197071 0.203522 0.207392 0.208682 0.207392 0.203522 0.197071 0.188039 0.176428 0.162631 0.148627 0.136789 0.12949 0.129102 0.137999 0.158553 0.193139 0.244128 0.313894 0.348376 0.269481 0.211556 0.171963 0.148064 0.137219 0.136789 0.144136 0.156621 0.171604 0.186448 0.198953 0.208679 0.215626 0.219794 0.221183 0.219794 0.215626 0.208679 0.198953 0.186448 0.171604 0.156621 0.144136 0.136789 0.137219 0.148064 0.171963 0.211556 0.269481 0.348376 0.378324 0.292656 0.229764 0.186781 0.160841 0.149079 0.148627 0.156621 0.170193 0.186478 0.202609 0.216198 0.226767 0.234317 0.238846 0.240356 0.238846 0.234317 0.226767 0.216198 0.202609 0.186478 0.170193 0.156621 0.148627 0.149079 0.160841 0.186781 0.229764 0.292656 0.378324 0.403948 0.3133 0.246901 0.201693 0.174617 0.162616 0.162631 0.171604 0.186478 0.204193 0.221692 0.236426 0.247886 0.256072 0.260984 0.262621 0.260984 0.256072 0.247886 0.236426 0.221692 0.204193 0.186478 0.171604 0.162631 0.162616 0.174617 0.201693 0.246901 0.3133 0.403948 0.425457 0.331059 0.262108 0.215388 0.18768 0.175766 0.176428 0.186448 0.202609 0.221692 0.24048 0.25629 0.268587 0.277371 0.282641 0.284398 0.282641 0.277371 0.268587 0.25629 0.24048 0.221692 0.202609 0.186448 0.176428 0.175766 0.18768 0.215388 0.262108 0.331059 0.425457 0.443027 0.345637 0.274668 0.226772 0.198601 0.186806 0.188039 0.198953 0.216198 0.236426 0.25629 0.272999 0.285994 0.295277 0.300847 0.302703 0.300847 0.295277 0.285994 0.272999 0.25629 0.236426 0.216198 0.198953 0.188039 0.186806 0.198601 0.226772 0.274668 0.345637 0.443027 0.456692 0.356975 0.284437 0.235626 0.207095 0.195393 0.197071 0.208679 0.226767 0.247886 0.268587 0.285994 0.299533 0.309204 0.315007 0.316941 0.315007 0.309204 0.299533 0.285994 0.268587 0.247886 0.226767 0.208679 0.197071 0.195393 0.207095 0.235626 0.284437 0.356975 0.456692 0.466453 0.365074 0.291414 0.241951 0.213162 0.201526 0.203522 0.215626 0.234317 0.256072 0.277371 0.295277 0.309204 0.319152 0.325121 0.32711 0.325121 0.319152 0.309204 0.295277 0.277371 0.256072 0.234317 0.215626 0.203522 0.201526 0.213162 0.241951 0.291414 0.365074 0.466453 0.47231 0.369934 0.295601 0.245745 0.216802 0.205207 0.207392 0.219794 0.2