<?xml version="1.0"?> 
<VTKFile type="StructuredGrid" version="0.1"> 
<StructuredGrid WholeExtent="0 60 0 60 0 30"> 
<Piece Extent="0 60 0 60 0 30"> 
<PointData Scalars="Ceramic volume fraction">
<DataArray type="Float32" Name="Ceramic volume fraction" format="ascii" NumberOfComponents="1"> 
6.28455e-05 0.0143157 0.0540638 0.114808 0.192049 0.281288 0.378025 0.477762 0.575998 0.668236 0.749976 0.817718 0.871962 0.914209 0.945957 0.968707 0.983958 0.99321 0.997963 0.999716 0.99997 0.999973 0.999976 0.999978 0.999981 0.999983 0.999985 0.999986 0.999988 0.999988 0.999988 0.999988 0.999988 0.999986 0.999985 0.999983 0.999981 0.999978 0.999976 0.999973 0.99997 0.999716 0.997963 0.99321 0.983958 0.968707 0.945957 0.914209 0.871962 0.817718 0.749976 0.668236 0.575998 0.477762 0.378025 0.281288 0.192049 0.114808 0.0540638 0.0143157 6.28455e-05 0.0143157 0.0281716 0.0668139 0.125885 0.201027 0.287883 0.382095 0.479305 0.575156 0.66529 0.745349 0.811941 0.86553 0.907546 0.939416 0.962571 0.97844 0.988451 0.994034 0.996618 0.997632 0.99827 0.998781 0.999179 0.999479 0.999694 0.999838 0.999926 0.999971 0.999988 0.999991 0.999988 0.999971 0.999926 0.999838 0.999694 0.999479 0.999179 0.998781 0.99827 0.997632 0.996618 0.994034 0.988451 0.97844 0.962571 0.939416 0.907546 0.86553 0.811941 0.745349 0.66529 0.575156 0.479305 0.382095 0.287883 0.201027 0.125885 0.0668139 0.0281716 0.0143157 0.0540638 0.0668139 0.102393 0.156833 0.226168 0.306432 0.393656 0.483875 0.573122 0.657429 0.732829 0.796224 0.847981 0.889333 0.921517 0.945767 0.963317 0.975403 0.983258 0.988118 0.991218 0.993595 0.995498 0.99698 0.998095 0.998893 0.999429 0.999754 0.999921 0.999983 0.999992 0.999983 0.999921 0.999754 0.999429 0.998893 0.998095 0.99698 0.995498 0.993595 0.991218 0.988118 0.983258 0.975403 0.963317 0.945767 0.921517 0.889333 0.847981 0.796224 0.732829 0.657429 0.573122 0.483875 0.393656 0.306432 0.226168 0.156833 0.102393 0.0668139 0.0540638 0.114808 0.125885 0.156833 0.204275 0.264833 0.33513 0.411789 0.491432 0.570682 0.646162 0.714494 0.773021 0.821966 0.86227 0.894877 0.920728 0.940767 0.955935 0.967175 0.97543 0.981641 0.986614 0.990595 0.993696 0.996027 0.997697 0.998816 0.999495 0.999844 0.999973 0.999991 0.999973 0.999844 0.999495 0.998816 0.997697 0.996027 0.993696 0.990595 0.986614 0.981641 0.97543 0.967175 0.955935 0.940767 0.920728 0.894877 0.86227 0.821966 0.773021 0.714494 0.646162 0.570682 0.491432 0.411789 0.33513 0.264833 0.204275 0.156833 0.125885 0.114808 0.192049 0.201027 0.226168 0.264833 0.314381 0.372174 0.435572 0.501935 0.568624 0.632999 0.692421 0.744787 0.790138 0.829053 0.86211 0.889887 0.912963 0.931916 0.947324 0.959765 0.969818 0.977994 0.984541 0.98964 0.993472 0.996218 0.998059 0.999175 0.999749 0.99996 0.99999 0.99996 0.999749 0.999175 0.998059 0.996218 0.993472 0.98964 0.984541 0.977994 0.969818 0.959765 0.947324 0.931916 0.912963 0.889887 0.86211 0.829053 0.790138 0.744787 0.692421 0.632999 0.568624 0.501935 0.435572 0.372174 0.314381 0.264833 0.226168 0.201027 0.192049 0.281288 0.287883 0.306432 0.33513 0.372174 0.41576 0.464085 0.515343 0.567733 0.619449 0.668688 0.713975 0.755149 0.792379 0.825832 0.855677 0.882082 0.905215 0.925244 0.942337 0.956662 0.968404 0.977805 0.985128 0.99063 0.994573 0.997216 0.998819 0.999642 0.999945 0.999989 0.999945 0.999642 0.998819 0.997216 0.994573 0.99063 0.985128 0.977805 0.968404 0.956662 0.942337 0.925244 0.905215 0.882082 0.855677 0.825832 0.792379 0.755149 0.713975 0.668688 0.619449 0.567733 0.515343 0.464085 0.41576 0.372174 0.33513 0.306432 0.287883 0.281288 0.378025 0.382095 0.393656 0.411789 0.435572 0.464085 0.496406 0.531617 0.568795 0.607021 0.645373 0.683041 0.719652 0.754946 0.788659 0.820531 0.850299 0.8777 0.902474 0.924358 0.94309 0.958509 0.970856 0.980471 0.987697 0.992875 0.996345 0.998451 0.999532 0.99993 0.999987 0.99993 0.999532 0.998451 0.996345 0.992875 0.987697 0.980471 0.970856 0.958509 0.94309 0.924358 0.902474 0.8777 0.850299 0.820531 0.788659 0.754946 0.719652 0.683041 0.645373 0.607021 0.568795 0.531617 0.496406 0.464085 0.435572 0.411789 0.393656 0.382095 0.378025 0.477762 0.479305 0.483875 0.491432 0.501935 0.515343 0.531617 0.550715 0.572598 0.597224 0.624553 0.654438 0.686299 0.719451 0.753207 0.786881 0.819788 0.851241 0.880555 0.907042 0.930017 0.948978 0.964161 0.975986 0.984872 0.991239 0.995507 0.998095 0.999425 0.999914 0.999984 0.999914 0.999425 0.998095 0.995507 0.991239 0.984872 0.975986 0.964161 0.948978 0.930017 0.907042 0.880555 0.851241 0.819788 0.786881 0.753207 0.719451 0.686299 0.654438 0.624553 0.597224 0.572598 0.550715 0.531617 0.515343 0.501935 0.491432 0.483875 0.479305 0.477762 0.575998 0.575156 0.573122 0.570682 0.568624 0.567733 0.568795 0.572598 0.579926 0.591567 0.608307 0.630621 0.657742 0.688591 0.72209 0.757161 0.792726 0.827707 0.861024 0.8916 0.918357 0.940478 0.958191 0.971986 0.982352 0.98978 0.994759 0.997779 0.999329 0.999901 0.999982 0.999901 0.999329 0.997779 0.994759 0.98978 0.982352 0.971986 0.958191 0.940478 0.918357 0.8916 0.861024 0.827707 0.792726 0.757161 0.72209 0.688591 0.657742 0.630621 0.608307 0.591567 0.579926 0.572598 0.568795 0.567733 0.568624 0.570682 0.573122 0.575156 0.575998 0.668236 0.66529 0.657429 0.646162 0.632999 0.619449 0.607021 0.597224 0.591567 0.59156 0.598712 0.614045 0.636633 0.665064 0.697925 0.733804 0.771288 0.808965 0.845422 0.879247 0.909027 0.933676 0.953413 0.968784 0.980335 0.988612 0.99416 0.997525 0.999253 0.999889 0.99998 0.999889 0.999253 0.997525 0.99416 0.988612 0.980335 0.968784 0.953413 0.933676 0.909027 0.879247 0.845422 0.808965 0.771288 0.733804 0.697925 0.665064 0.636633 0.614045 0.598712 0.59156 0.591567 0.597224 0.607021 0.619449 0.632999 0.646162 0.657429 0.66529 0.668236 0.749976 0.745349 0.732829 0.714494 0.692421 0.668688 0.645373 0.624553 0.608307 0.598712 0.597846 0.607164 0.625625 0.651567 0.683327 0.719242 0.757649 0.796886 0.835288 0.871194 0.90294 0.929238 0.950296 0.966696 0.979019 0.98785 0.993769 0.997359 0.999203 0.999882 0.999979 0.999882 0.999203 0.997359 0.993769 0.98785 0.979019 0.966696 0.950296 0.929238 0.90294 0.871194 0.835288 0.796886 0.757649 0.719242 0.683327 0.651567 0.625625 0.607164 0.597846 0.598712 0.608307 0.624553 0.645373 0.668688 0.692421 0.714494 0.732829 0.745349 0.749976 0.817718 0.811941 0.796224 0.773021 0.744787 0.713975 0.683041 0.654438 0.630621 0.614045 0.607164 0.611721 0.626617 0.650042 0.680186 0.715238 0.753388 0.792826 0.831741 0.868324 0.900764 0.927651 0.949181 0.965949 0.978549 0.987577 0.993629 0.9973 0.999185 0.999879 0.999978 0.999879 0.999185 0.9973 0.993629 0.987577 0.978549 0.965949 0.949181 0.927651 0.900764 0.868324 0.831741 0.792826 0.753388 0.715238 0.680186 0.650042 0.626617 0.611721 0.607164 0.614045 0.630621 0.654438 0.683041 0.713975 0.744787 0.773021 0.796224 0.811941 0.817718 0.871962 0.86553 0.847981 0.821966 0.790138 0.755149 0.719652 0.686299 0.657742 0.636633 0.625625 0.626617 0.6385 0.659411 0.687489 0.720871 0.757695 0.796098 0.834219 0.870195 0.902164 0.928672 0.949898 0.966429 0.978851 0.987752 0.993719 0.997338 0.999196 0.99988 0.999978 0.99988 0.999196 0.997338 0.993719 0.987752 0.978851 0.966429 0.949898 0.928672 0.902164 0.870195 0.834219 0.796098 0.757695 0.720871 0.687489 0.659411 0.6385 0.626617 0.625625 0.636633 0.657742 0.686299 0.719652 0.755149 0.790138 0.821966 0.847981 0.86553 0.871962 0.914209 0.907546 0.889333 0.86227 0.829053 0.792379 0.754946 0.719451 0.688591 0.665064 0.651567 0.650042 0.659411 0.677842 0.703499 0.734551 0.769164 0.805505 0.84174 0.876036 0.906559 0.931877 0.952149 0.967937 0.979801 0.988302 0.994001 0.997457 0.999232 0.999885 0.999979 0.999885 0.999232 0.997457 0.994001 0.988302 0.979801 0.967937 0.952149 0.931877 0.906559 0.876036 0.84174 0.805505 0.769164 0.734551 0.703499 0.677842 0.659411 0.650042 0.651567 0.665064 0.688591 0.719451 0.754946 0.792379 0.829053 0.86227 0.889333 0.907546 0.914209 0.945957 0.939416 0.921517 0.894877 0.86211 0.825832 0.788659 0.753207 0.72209 0.697925 0.683327 0.680186 0.687489 0.703499 0.726478 0.754688 0.78639 0.819847 0.853321 0.885073 0.913367 0.93684 0.955635 0.970273 0.981273 0.989154 0.994437 0.997642 0.999287 0.999893 0.99998 0.999893 0.999287 0.997642 0.994437 0.989154 0.981273 0.970273 0.955635 0.93684 0.913367 0.885073 0.853321 0.819847 0.78639 0.754688 0.726478 0.703499 0.687489 0.680186 0.683327 0.697925 0.72209 0.753207 0.788659 0.825832 0.86211 0.894877 0.921517 0.939416 0.945957 0.968707 0.962571 0.945767 0.920728 0.889887 0.855677 0.820531 0.786881 0.757161 0.733804 0.719242 0.715238 0.720871 0.734551 0.754688 0.779689 0.807966 0.837927 0.86798 0.896537 0.922005 0.943137 0.960058 0.973236 0.983139 0.990235 0.994991 0.997876 0.999357 0.999903 0.999981 0.999903 0.999357 0.997876 0.994991 0.990235 0.983139 0.973236 0.960058 0.943137 0.922005 0.896537 0.86798 0.837927 0.807966 0.779689 0.754688 0.734551 0.720871 0.715238 0.719242 0.733804 0.757161 0.786881 0.820531 0.855677 0.889887 0.920728 0.945767 0.962571 0.968707 0.983958 0.97844 0.963317 0.940767 0.912963 0.882082 0.850299 0.819788 0.792726 0.771288 0.757649 0.753388 0.757695 0.769164 0.78639 0.807966 0.832486 0.858545 0.884736 0.909653 0.93189 0.950344 0.96512 0.976628 0.985276 0.991472 0.995625 0.998145 0.999438 0.999914 0.999983 0.999914 0.999438 0.998145 0.995625 0.991472 0.985276 0.976628 0.96512 0.950344 0.93189 0.909653 0.884736 0.858545 0.832486 0.807966 0.78639 0.769164 0.757695 0.753388 0.757649 0.771288 0.792726 0.819788 0.850299 0.882082 0.912963 0.940767 0.963317 0.97844 0.983958 0.99321 0.988451 0.975403 0.955935 0.931916 0.905215 0.8777 0.851241 0.827707 0.808965 0.796886 0.792826 0.796098 0.805505 0.819847 0.837927 0.858545 0.880504 0.902605 0.92365 0.942441 0.958036 0.970523 0.980248 0.987556 0.992792 0.996302 0.998431 0.999524 0.999927 0.999984 0.999927 0.999524 0.998431 0.996302 0.992792 0.987556 0.980248 0.970523 0.958036 0.942441 0.92365 0.902605 0.880504 0.858545 0.837927 0.819847 0.805505 0.796098 0.792826 0.796886 0.808965 0.827707 0.851241 0.8777 0.905215 0.931916 0.955935 0.975403 0.988451 0.99321 0.997963 0.994034 0.983258 0.967175 0.947324 0.925244 0.902474 0.880555 0.861024 0.845422 0.835288 0.831741 0.834219 0.84174 0.853321 0.86798 0.884736 0.902605 0.920607 0.937757 0.953075 0.965789 0.975969 0.983897 0.989854 0.994123 0.996984 0.99872 0.999611 0.999939 0.999986 0.999939 0.999611 0.99872 0.996984 0.994123 0.989854 0.983897 0.975969 0.965789 0.953075 0.937757 0.920607 0.902605 0.884736 0.86798 0.853321 0.84174 0.834219 0.831741 0.835288 0.845422 0.861024 0.880555 0.902474 0.925244 0.947324 0.967175 0.983258 0.994034 0.997963 0.999716 0.996618 0.988118 0.97543 0.959765 0.942337 0.924358 0.907042 0.8916 0.879247 0.871194 0.868324 0.870195 0.876036 0.885073 0.896537 0.909653 0.92365 0.937757 0.951201 0.96321 0.973177 0.981158 0.987374 0.992045 0.995391 0.997635 0.998995 0.999694 0.999951 0.999988 0.999951 0.999694 0.998995 0.997635 0.995391 0.992045 0.987374 0.981158 0.973177 0.96321 0.951201 0.937757 0.92365 0.909653 0.896537 0.885073 0.876036 0.870195 0.868324 0.871194 0.879247 0.8916 0.907042 0.924358 0.942337 0.959765 0.97543 0.988118 0.996618 0.999716 0.99997 0.997632 0.991218 0.981641 0.969818 0.956662 0.94309 0.930017 0.918357 0.909027 0.90294 0.900764 0.902164 0.906559 0.913367 0.922005 0.93189 0.942441 0.953075 0.96321 0.972263 0.979778 0.985794 0.99048 0.994001 0.996524 0.998215 0.999241 0.999768 0.999962 0.999989 0.999962 0.999768 0.999241 0.998215 0.996524 0.994001 0.99048 0.985794 0.979778 0.972263 0.96321 0.953075 0.942441 0.93189 0.922005 0.913367 0.906559 0.902164 0.900764 0.90294 0.909027 0.918357 0.930017 0.94309 0.956662 0.969818 0.981641 0.991218 0.997632 0.99997 0.999973 0.99827 0.993595 0.986614 0.977994 0.968404 0.958509 0.948978 0.940478 0.933676 0.929238 0.927651 0.928672 0.931877 0.93684 0.943137 0.950344 0.958036 0.965789 0.973177 0.979778 0.985256 0.989642 0.993058 0.995625 0.997465 0.998698 0.999445 0.999829 0.99997 0.999991 0.99997 0.999829 0.999445 0.998698 0.997465 0.995625 0.993058 0.989642 0.985256 0.979778 0.973177 0.965789 0.958036 0.950344 0.943137 0.93684 0.931877 0.928672 0.927651 0.929238 0.933676 0.940478 0.948978 0.958509 0.968404 0.977994 0.986614 0.993595 0.99827 0.999973 0.999976 0.998781 0.995498 0.990595 0.984541 0.977805 0.970856 0.964161 0.958191 0.953413 0.950296 0.949181 0.949898 0.952149 0.955635 0.960058 0.96512 0.970523 0.975969 0.981158 0.985794 0.989642 0.992723 0.995123 0.996926 0.998218 0.999084 0.999609 0.999878 0.999978 0.999992 0.999978 0.999878 0.999609 0.999084 0.998218 0.996926 0.995123 0.992723 0.989642 0.985794 0.981158 0.975969 0.970523 0.96512 0.960058 0.955635 0.952149 0.949898 0.949181 0.950296 0.953413 0.958191 0.964161 0.970856 0.977805 0.984541 0.990595 0.995498 0.998781 0.999976 0.999978 0.999179 0.99698 0.993696 0.98964 0.985128 0.980471 0.975986 0.971986 0.968784 0.966696 0.965949 0.966429 0.967937 0.970273 0.973236 0.976628 0.980248 0.983897 0.987374 0.99048 0.993058 0.995123 0.99673 0.997938 0.998804 0.999384 0.999736 0.999917 0.999983 0.999993 0.999983 0.999917 0.999736 0.999384 0.998804 0.997938 0.99673 0.995123 0.993058 0.99048 0.987374 0.983897 0.980248 0.976628 0.973236 0.970273 0.967937 0.966429 0.965949 0.966696 0.968784 0.971986 0.975986 0.980471 0.985128 0.98964 0.993696 0.99698 0.999179 0.999978 0.999981 0.999479 0.998095 0.996027 0.993472 0.99063 0.987697 0.984872 0.982352 0.980335 0.979019 0.978549 0.978851 0.979801 0.981273 0.983139 0.985276 0.987556 0.989854 0.992045 0.994001 0.995625 0.996926 0.997938 0.998699 0.999245 0.99961 0.999832 0.999946 0.999987 0.999993 0.999987 0.999946 0.999832 0.99961 0.999245 0.998699 0.997938 0.996926 0.995625 0.994001 0.992045 0.989854 0.987556 0.985276 0.983139 0.981273 0.979801 0.978851 0.978549 0.979019 0.980335 0.982352 0.984872 0.987697 0.99063 0.993472 0.996027 0.998095 0.999479 0.999981 0.999983 0.999694 0.998893 0.997697 0.996218 0.994573 0.992875 0.991239 0.98978 0.988612 0.98785 0.987577 0.987752 0.988302 0.989154 0.990235 0.991472 0.992792 0.994123 0.995391 0.996524 0.997465 0.998218 0.998804 0.999245 0.99956 0.999772 0.9999 0.999966 0.99999 0.999994 0.99999 0.999966 0.9999 0.999772 0.99956 0.999245 0.998804 0.998218 0.997465 0.996524 0.995391 0.994123 0.992792 0.991472 0.990235 0.989154 0.988302 0.987752 0.987577 0.98785 0.988612 0.98978 0.991239 0.992875 0.994573 0.996218 0.997697 0.998893 0.999694 0.999983 0.999985 0.999838 0.999429 0.998816 0.998059 0.997216 0.996345 0.995507 0.994759 0.99416 0.993769 0.993629 0.993719 0.994001 0.994437 0.994991 0.995625 0.996302 0.996984 0.997635 0.998215 0.998698 0.999084 0.999384 0.99961 0.999772 0.999881 0.999946 0.99998 0.999993 0.999994 0.999993 0.99998 0.999946 0.999881 0.999772 0.99961 0.999384 0.999084 0.998698 0.998215 0.997635 0.996984 0.996302 0.995625 0.994991 0.994437 0.994001 0.993719 0.993629 0.993769 0.99416 0.994759 0.995507 0.996345 0.997216 0.998059 0.998816 0.999429 0.999838 0.999985 0.999986 0.999926 0.999754 0.999495 0.999175 0.998819 0.998451 0.998095 0.997779 0.997525 0.997359 0.9973 0.997338 0.997457 0.997642 0.997876 0.998145 0.998431 0.99872 0.998995 0.999241 0.999445 0.999609 0.999736 0.999832 0.9999 0.999946 0.999974 0.999989 0.999994 0.999995 0.999994 0.999989 0.999974 0.999946 0.9999 0.999832 0.999736 0.999609 0.999445 0.999241 0.998995 0.99872 0.998431 0.998145 0.997876 0.997642 0.997457 0.997338 0.9973 0.997359 0.997525 0.997779 0.998095 0.998451 0.998819 0.999175 0.999495 0.999754 0.999926 0.999986 0.999988 0.999971 0.999921 0.999844 0.999749 0.999642 0.999532 0.999425 0.999329 0.999253 0.999203 0.999185 0.999196 0.999232 0.999287 0.999357 0.999438 0.999524 0.999611 0.999694 0.999768 0.999829 0.999878 0.999917 0.999946 0.999966 0.99998 0.999989 0.999993 0.999995 0.999995 0.999995 0.999993 0.999989 0.99998 0.999966 0.999946 0.999917 0.999878 0.999829 0.999768 0.999694 0.999611 0.999524 0.999438 0.999357 0.999287 0.999232 0.999196 0.999185 0.999203 0.999253 0.999329 0.999425 0.999532 0.999642 0.999749 0.999844 0.999921 0.999971 0.999988 0.999988 0.999988 0.999983 0.999973 0.99996 0.999945 0.99993 0.999914 0.999901 0.999889 0.999882 0.999879 0.99988 0.999885 0.999893 0.999903 0.999914 0.999927 0.999939 0.999951 0.999962 0.99997 0.999978 0.999983 0.999987 0.99999 0.999993 0.999994 0.999995 0.999995 0.999995 0.999995 0.999995 0.999994 0.999993 0.99999 0.999987 0.999983 0.999978 0.99997 0.999962 0.999951 0.999939 0.999927 0.999914 0.999903 0.999893 0.999885 0.99988 0.999879 0.999882 0.999889 0.999901 0.999914 0.99993 0.999945 0.99996 0.999973 0.999983 0.999988 0.999988 0.999988 0.999991 0.999992 0.999991 0.99999 0.999989 0.999987 0.999984 0.999982 0.99998 0.999979 0.999978 0.999978 0.999979 0.99998 0.999981 0.999983 0.999984 0.999986 0.999988 0.999989 0.999991 0.999992 0.999993 0.999993 0.999994 0.999994 0.999995 0.999995 0.999995 0.999995 0.999995 0.999995 0.999995 0.999994 0.999994 0.999993 0.999993 0.999992 0.999991 0.999989 0.999988 0.999986 0.999984 0.999983 0.999981 0.99998 0.999979 0.999978 0.999978 0.999979 0.99998 0.999982 0.999984 0.999987 0.999989 0.99999 0.999991 0.999992 0.999991 0.999988 0.999988 0.999988 0.999983 0.999973 0.99996 0.999945 0.99993 0.999914 0.999901 0.999889 0.999882 0.999879 0.99988 0.999885 0.999893 0.999903 0.999914 0.999927 0.999939 0.999951 0.999962 0.99997 0.999978 0.999983 0.999987 0.99999 0.999993 0.999994 0.999995 0.999995 0.999995 0.999995 0.999995 0.999994 0.999993 0.99999 0.999987 0.999983 0.999978 0.99997 0.999962 0.999951 0.999939 0.999927 0.999914 0.999903 0.999893 0.999885 0.99988 0.999879 0.999882 0.999889 0.999901 0.999914 0.99993 0.999945 0.99996 0.999973 0.999983 0.999988 0.999988 0.999988 0.999971 0.999921 0.999844 0.999749 0.999642 0.999532 0.999425 0.999329 0.999253 0.999203 0.999185 0.999196 0.999232 0.999287 0.999357 0.999438 0.999524 0.999611 0.999694 0.999768 0.999829 0.999878 0.999917 0.999946 0.999966 0.99998 0.999989 0.999993 0.999995 0.999995 0.999995 0.999993 0.999989 0.99998 0.999966 0.999946 0.999917 0.999878 0.999829 0.999768 0.999694 0.999611 0.999524 0.999438 0.999357 0.999287 0.999232 0.999196 0.999185 0.999203 0.999253 0.999329 0.999425 0.999532 0.999642 0.999749 0.999844 0.999921 0.999971 0.999988 0.999986 0.999926 0.999754 0.999495 0.999175 0.998819 0.998451 0.998095 0.997779 0.997525 0.997359 0.9973 0.997338 0.997457 0.997642 0.997876 0.998145 0.998431 0.99872 0.998995 0.999241 0.999445 0.999609 0.999736 0.999832 0.9999 0.999946 0.999974 0.999989 0.999994 0.999995 0.999994 0.999989 0.999974 0.999946 0.9999 0.999832 0.999736 0.999609 0.999445 0.999241 0.998995 0.99872 0.998431 0.998145 0.997876 0.997642 0.997457 0.997338 0.9973 0.997359 0.997525 0.997779 0.998095 0.998451 0.998819 0.999175 0.999495 0.999754 0.999926 0.999986 0.999985 0.999838 0.999429 0.998816 0.998059 0.997216 0.996345 0.995507 0.994759 0.99416 0.993769 0.993629 0.993719 0.994001 0.994437 0.994991 0.995625 0.996302 0.996984 0.997635 0.998215 0.998698 0.999084 0.999384 0.99961 0.999772 0.999881 0.999946 0.99998 0.999993 0.999994 0.999993 0.99998 0.999946 0.999881 0.999772 0.99961 0.999384 0.999084 0.998698 0.998215 0.997635 0.996984 0.996302 0.995625 0.994991 0.994437 0.994001 0.993719 0.993629 0.993769 0.99416 0.994759 0.995507 0.996345 0.997216 0.998059 0.998816 0.999429 0.999838 0.999985 0.999983 0.999694 0.998893 0.997697 0.996218 0.994573 0.992875 0.991239 0.98978 0.988612 0.98785 0.987577 0.987752 0.988302 0.989154 0.990235 0.991472 0.992792 0.994123 0.995391 0.996524 0.997465 0.998218 0.998804 0.999245 0.99956 0.999772 0.9999 0.999966 0.99999 0.999994 0.99999 0.999966 0.9999 0.999772 0.99956 0.999245 0.998804 0.998218 0.997465 0.996524 0.995391 0.994123 0.992792 0.991472 0.990235 0.989154 0.988302 0.987752 0.987577 0.98785 0.988612 0.98978 0.991239 0.992875 0.994573 0.996218 0.997697 0.998893 0.999694 0.999983 0.999981 0.999479 0.998095 0.996027 0.993472 0.99063 0.987697 0.984872 0.982352 0.980335 0.979019 0.978549 0.978851 0.979801 0.981273 0.983139 0.985276 0.987556 0.989854 0.992045 0.994001 0.995625 0.996926 0.997938 0.998699 0.999245 0.99961 0.999832 0.999946 0.999987 0.999993 0.999987 0.999946 0.999832 0.99961 0.999245 0.998699 0.997938 0.996926 0.995625 0.994001 0.992045 0.989854 0.987556 0.985276 0.983139 0.981273 0.979801 0.978851 0.978549 0.979019 0.980335 0.982352 0.984872 0.987697 0.99063 0.993472 0.996027 0.998095 0.999479 0.999981 0.999978 0.999179 0.99698 0.993696 0.98964 0.985128 0.980471 0.975986 0.971986 0.968784 0.966696 0.965949 0.966429 0.967937 0.970273 0.973236 0.976628 0.980248 0.983897 0.987374 0.99048 0.993058 0.995123 0.99673 0.997938 0.998804 0.999384 0.999736 0.999917 0.999983 0.999993 0.999983 0.999917 0.999736 0.999384 0.998804 0.997938 0.99673 0.995123 0.993058 0.99048 0.987374 0.983897 0.980248 0.976628 0.973236 0.970273 0.967937 0.966429 0.965949 0.966696 0.968784 0.971986 0.975986 0.980471 0.985128 0.98964 0.993696 0.99698 0.999179 0.999978 0.999976 0.998781 0.995498 0.990595 0.984541 0.977805 0.970856 0.964161 0.958191 0.953413 0.950296 0.949181 0.949898 0.952149 0.955635 0.960058 0.96512 0.970523 0.975969 0.981158 0.985794 0.989642 0.992723 0.995123 0.996926 0.998218 0.999084 0.999609 0.999878 0.999978 0.999992 0.999978 0.999878 0.999609 0.999084 0.998218 0.996926 0.995123 0.992723 0.989642 0.985794 0.981158 0.975969 0.970523 0.96512 0.960058 0.955635 0.952149 0.949898 0.949181 0.950296 0.953413 0.958191 0.964161 0.970856 0.977805 0.984541 0.990595 0.995498 0.998781 0.999976 0.999973 0.99827 0.993595 0.986614 0.977994 0.968404 0.958509 0.948978 0.940478 0.933676 0.929238 0.927651 0.928672 0.931877 0.93684 0.943137 0.950344 0.958036 0.965789 0.973177 0.979778 0.985256 0.989642 0.993058 0.995625 0.997465 0.998698 0.999445 0.999829 0.99997 0.999991 0.99997 0.999829 0.999445 0.998698 0.997465 0.995625 0.993058 0.989642 0.985256 0.979778 0.973177 0.965789 0.958036 0.950344 0.943137 0.93684 0.931877 0.928672 0.927651 0.929238 0.933676 0.940478 0.948978 0.958509 0.968404 0.977994 0.986614 0.993595 0.99827 0.999973 0.99997 0.997632 0.991218 0.981641 0.969818 0.956662 0.94309 0.930017 0.918357 0.909027 0.90294 0.900764 0.902164 0.906559 0.913367 0.922005 0.93189 0.942441 0.953075 0.96321 0.972263 0.979778 0.985794 0.99048 0.994001 0.996524 0.998215 0.999241 0.999768 0.999962 0.999989 0.999962 0.999768 0.999241 0.998215 0.996524 0.994001 0.99048 0.985794 0.979778 0.972263 0.96321 0.953075 0.942441 0.93189 0.922005 0.913367 0.906559 0.902164 0.900764 0.90294 0.909027 0.918357 0.930017 0.94309 0.956662 0.969818 0.981641 0.991218 0.997632 0.99997 0.999716 0.996618 0.988118 0.97543 0.959765 0.942337 0.924358 0.907042 0.8916 0.879247 0.871194 0.868324 0.870195 0.876036 0.885073 0.896537 0.909653 0.92365 0.937757 0.951201 0.96321 0.973177 0.981158 0.987374 0.992045 0.995391 0.997635 0.998995 0.999694 0.999951 0.999988 0.999951 0.999694 0.998995 0.997635 0.995391 0.992045 0.987374 0.981158 0.973177 0.96321 0.951201 0.937757 0.92365 0.909653 0.896537 0.885073 0.876036 0.870195 0.868324 0.871194 0.879247 0.8916 0.907042 0.924358 0.942337 0.959765 0.97543 0.988118 0.996618 0.999716 0.997963 0.994034 0.983258 0.967175 0.947324 0.925244 0.902474 0.880555 0.861024 0.845422 0.835288 0.831741 0.834219 0.84174 0.853321 0.86798 0.884736 0.902605 0.920607 0.937757 0.953075 0.965789 0.975969 0.983897 0.989854 0.994123 0.996984 0.99872 0.999611 0.999939 0.999986 0.999939 0.999611 0.99872 0.996984 0.994123 0.989854 0.983897 0.975969 0.965789 0.953075 0.937757 0.920607 0.902605 0.884736 0.86798 0.853321 0.84174 0.834219 0.831741 0.835288 0.845422 0.861024 0.880555 0.902474 0.925244 0.947324 0.967175 0.983258 0.994034 0.997963 0.99321 0.988451 0.975403 0.955935 0.931916 0.905215 0.8777 0.851241 0.827707 0.808965 0.796886 0.792826 0.796098 0.805505 0.819847 0.837927 0.858545 0.880504 0.902605 0.92365 0.942441 0.958036 0.970523 0.980248 0.987556 0.992792 0.996302 0.998431 0.999524 0.999927 0.999984 0.999927 0.999524 0.998431 0.996302 0.992792 0.987556 0.980248 0.970523 0.958036 0.942441 0.92365 0.902605 0.880504 0.858545 0.837927 0.819847 0.805505 0.796098 0.792826 0.796886 0.808965 0.827707 0.851241 0.8777 0.905215 0.931916 0.955935 0.975403 0.988451 0.99321 0.983958 0.97844 0.963317 0.940767 0.912963 0.882082 0.850299 0.819788 0.792726 0.771288 0.757649 0.753388 0.757695 0.769164 0.78639 0.807966 0.832486 0.858545 0.884736 0.909653 0.93189 0.950344 0.96512 0.976628 0.985276 0.991472 0.995625 0.998145 0.999438 0.999914 0.999983 0.999914 0.999438 0.998145 0.995625 0.991472 0.985276 0.976628 0.96512 0.950344 0.93189 0.909653 0.884736 0.858545 0.832486 0.807966 0.78639 0.769164 0.757695 0.753388 0.757649 0.771288 0.792726 0.819788 0.850299 0.882082 0.912963 0.940767 0.963317 0.97844 0.983958 0.968707 0.962571 0.945767 0.920728 0.889887 0.855677 0.820531 0.786881 0.757161 0.733804 0.719242 0.715238 0.720871 0.734551 0.754688 0.779689 0.807966 0.837927 0.86798 0.896537 0.922005 0.943137 0.960058 0.973236 0.983139 0.990235 0.994991 0.997876 0.999357 0.999903 0.999981 0.999903 0.999357 0.997876 0.994991 0.990235 0.983139 0.973236 0.960058 0.943137 0.922005 0.896537 0.86798 0.837927 0.807966 0.779689 0.754688 0.734551 0.720871 0.715238 0.719242 0.733804 0.757161 0.786881 0.820531 0.855677 0.889887 0.920728 0.945767 0.962571 0.968707 0.945957 0.939416 0.921517 0.894877 0.86211 0.825832 0.788659 0.753207 0.72209 0.697925 0.683327 0.680186 0.687489 0.703499 0.726478 0.754688 0.78639 0.819847 0.853321 0.885073 0.913367 0.93684 0.955635 0.970273 0.981273 0.989154 0.994437 0.997642 0.999287 0.999893 0.99998 0.999893 0.999287 0.997642 0.994437 0.989154 0.981273 0.970273 0.955635 0.93684 0.913367 0.885073 0.853321 0.819847 0.78639 0.754688 0.726478 0.703499 0.687489 0.680186 0.683327 0.697925 0.72209 0.753207 0.788659 0.825832 0.86211 0.894877 0.921517 0.939416 0.945957 0.914209 0.907546 0.889333 0.86227 0.829053 0.792379 0.754946 0.719451 0.688591 0.665064 0.651567 0.650042 0.659411 0.677842 0.703499 0.734551 0.769164 0.805505 0.84174 0.876036 0.906559 0.931877 0.952149 0.967937 0.979801 0.988302 0.994001 0.997457 0.999232 0.999885 0.999979 0.999885 0.999232 0.997457 0.994001 0.988302 0.979801 0.967937 0.952149 0.931877 0.906559 0.876036 0.84174 0.805505 0.769164 0.734551 0.703499 0.677842 0.659411 0.650042 0.651567 0.665064 0.688591 0.719451 0.754946 0.792379 0.829053 0.86227 0.889333 0.907546 0.914209 0.871962 0.86553 0.847981 0.821966 0.790138 0.755149 0.719652 0.686299 0.657742 0.636633 0.625625 0.626617 0.6385 0.659411 0.687489 0.720871 0.757695 0.796098 0.834219 0.870195 0.902164 0.928672 0.949898 0.966429 0.978851 0.987752 0.993719 0.997338 0.999196 0.99988 0.999978 0.99988 0.999196 0.997338 0.993719 0.987752 0.978851 0.966429 0.949898 0.928672 0.902164 0.870195 0.834219 0.796098 0.757695 0.720871 0.687489 0.659411 0.6385 0.626617 0.625625 0.636633 0.657742 0.686299 0.719652 0.755149 0.790138 0.821966 0.847981 0.86553 0.871962 0.817718 0.811941 0.796224 0.773021 0.744787 0.713975 0.683041 0.654438 0.630621 0.614045 0.607164 0.611721 0.626617 0.650042 0.680186 0.715238 0.753388 0.792826 0.831741 0.868324 0.900764 0.927651 0.949181 0.965949 0.978549 0.987577 0.993629 0.9973 0.999185 0.999879 0.999978 0.999879 0.999185 0.9973 0.993629 0.987577 0.978549 0.965949 0.949181 0.927651 0.900764 0.868324 0.831741 0.792826 0.753388 0.715238 0.680186 0.650042 0.626617 0.611721 0.607164 0.614045 0.630621 0.654438 0.683041 0.713975 0.744787 0.773021 0.796224 0.811941 0.817718 0.749976 0.745349 0.732829 0.714494 0.692421 0.668688 0.645373 0.624553 0.608307 0.598712 0.597846 0.607164 0.625625 0.651567 0.683327 0.719242 0.757649 0.796886 0.835288 0.871194 0.90294 0.929238 0.950296 0.966696 0.979019 0.98785 0.993769 0.997359 0.999203 0.999882 0.999979 0.999882 0.999203 0.997359 0.993769 0.98785 0.979019 0.966696 0.950296 0.929238 0.90294 0.871194 0.835288 0.796886 0.757649 0.719242 0.683327 0.651567 0.625625 0.607164 0.597846 0.598712 0.608307 0.624553 0.645373 0.668688 0.692421 0.714494 0.732829 0.745349 0.749976 0.668236 0.66529 0.657429 0.646162 0.632999 0.619449 0.607021 0.597224 0.591567 0.59156 0.598712 0.614045 0.636633 0.665064 0.697925 0.733804 0.771288 0.808965 0.845422 0.879247 0.909027 0.933676 0.953413 0.968784 0.980335 0.988612 0.99416 0.997525 0.999253 0.999889 0.99998 0.999889 0.999253 0.997525 0.99416 0.988612 0.980335 0.968784 0.953413 0.933676 0.909027 0.879247 0.845422 0.808965 0.771288 0.733804 0.697925 0.665064 0.636633 0.614045 0.598712 0.59156 0.591567 0.597224 0.607021 0.619449 0.632999 0.646162 0.657429 0.66529 0.668236 0.575998 0.575156 0.573122 0.570682 0.568624 0.567733 0.568795 0.572598 0.579926 0.591567 0.608307 0.630621 0.657742 0.688591 0.72209 0.757161 0.792726 0.827707 0.861024 0.8916 0.918357 0.940478 0.958191 0.971986 0.982352 0.98978 0.994759 0.997779 0.999329 0.999901 0.999982 0.999901 0.999329 0.997779 0.994759 0.98978 0.982352 0.971986 0.958191 0.940478 0.918357 0.8916 0.861024 0.827707 0.792726 0.757161 0.72209 0.688591 0.657742 0.630621 0.608307 0.591567 0.579926 0.572598 0.568795 0.567733 0.568624 0.570682 0.573122 0.575156 0.575998 0.477762 0.479305 0.483875 0.491432 0.501935 0.515343 0.531617 0.550715 0.572598 0.597224 0.624553 0.654438 0.686299 0.719451 0.753207 0.786881 0.819788 0.851241 0.880555 0.907042 0.930017 0.948978 0.964161 0.975986 0.984872 0.991239 0.995507 0.998095 0.999425 0.999914 0.999984 0.999914 0.999425 0.998095 0.995507 0.991239 0.984872 0.975986 0.964161 0.948978 0.930017 0.907042 0.880555 0.851241 0.819788 0.786881 0.753207 0.719451 0.686299 0.654438 0.624553 0.597224 0.572598 0.550715 0.531617 0.515343 0.501935 0.491432 0.483875 0.479305 0.477762 0.378025 0.382095 0.393656 0.411789 0.435572 0.464085 0.496406 0.531617 0.568795 0.607021 0.645373 0.683041 0.719652 0.754946 0.788659 0.820531 0.850299 0.8777 0.902474 0.924358 0.94309 0.958509 0.970856 0.980471 0.987697 0.992875 0.996345 0.998451 0.999532 0.99993 0.999987 0.99993 0.999532 0.998451 0.996345 0.992875 0.987697 0.980471 0.970856 0.958509 0.94309 0.924358 0.902474 0.8777 